n -t * -s 0  -x 0 -y 200 -Z 100 -z 30  -v circle -c black
n -t * -s 1  -x 350 -y 200 -Z 100 -z 30  -v circle -c black
V -t * -v 1.0a5 -a 0
W -t * -x 700 -y 700
A -t * -n 1 -p 0 -o 0x7fffffff -c 30 -a 1
A -t * -h 1 -m 1073741823 -s 0
+ -t 1.000000000 -s 0 -d -1 -p cbr -e 512 -c 2 -a 0 -i 0 -k AGT 
- -t 1.000000000 -s 0 -d -1 -p cbr -e 512 -c 2 -a 0 -i 0 -k AGT
h -t 1.000000000 -s 0 -d -1 -p cbr -e 512 -c 2 -a 0 -i 0 -k AGT
+ -t 1.000000000 -s 0 -d -1 -p AODV -e 48 -c 2 -a 0 -i 0 -k RTR 
- -t 1.000000000 -s 0 -d -1 -p AODV -e 48 -c 2 -a 0 -i 0 -k RTR
h -t 1.000000000 -s 0 -d -1 -p AODV -e 48 -c 2 -a 0 -i 0 -k RTR
+ -t 1.000535000 -s 0 -d -1 -p AODV -e 106 -c 2 -a 0 -i 0 -k MAC 
- -t 1.000535000 -s 0 -d -1 -p AODV -e 106 -c 2 -a 0 -i 0 -k MAC
h -t 1.000535000 -s 0 -d -1 -p AODV -e 106 -c 2 -a 0 -i 0 -k MAC
r -t 1.001384167 -s 1 -d -1 -p AODV -e 48 -c 2 -a 0 -i 0 -k MAC
r -t 1.001409167 -s 1 -d -1 -p AODV -e 48 -c 2 -a 0 -i 0 -k RTR
+ -t 1.001409167 -s 1 -d 0 -p AODV -e 44 -c 2 -a 0 -i 0 -k RTR 
- -t 1.001409167 -s 1 -d 0 -p AODV -e 44 -c 2 -a 0 -i 0 -k RTR
h -t 1.001409167 -s 1 -d 0 -p AODV -e 44 -c 2 -a 0 -i 0 -k RTR
+ -t 1.002024167 -s 1 -d -1 -p ARP -e 86 -c 2 -a 0 -i 0 -k MAC 
- -t 1.002024167 -s 1 -d -1 -p ARP -e 86 -c 2 -a 0 -i 0 -k MAC
h -t 1.002024167 -s 1 -d -1 -p ARP -e 86 -c 2 -a 0 -i 0 -k MAC
r -t 1.002713333 -s 0 -d -1 -p ARP -e 28 -c 2 -a 0 -i 0 -k MAC
+ -t 1.003088333 -s 0 -d -1 -p RTS -e 44 -c 2 -a 0 -i 0 -k MAC 
- -t 1.003088333 -s 0 -d -1 -p RTS -e 44 -c 2 -a 0 -i 0 -k MAC
h -t 1.003088333 -s 0 -d -1 -p RTS -e 44 -c 2 -a 0 -i 0 -k MAC
r -t 1.003441500 -s 1 -d -1 -p RTS -e 44 -c 2 -a 0 -i 0 -k MAC
+ -t 1.003451500 -s 1 -d -1 -p CTS -e 38 -c 2 -a 0 -i 0 -k MAC 
- -t 1.003451500 -s 1 -d -1 -p CTS -e 38 -c 2 -a 0 -i 0 -k MAC
h -t 1.003451500 -s 1 -d -1 -p CTS -e 38 -c 2 -a 0 -i 0 -k MAC
r -t 1.003756667 -s 0 -d -1 -p CTS -e 38 -c 2 -a 0 -i 0 -k MAC
+ -t 1.003766667 -s 0 -d -1 -p ARP -e 86 -c 2 -a 0 -i 0 -k MAC 
- -t 1.003766667 -s 0 -d -1 -p ARP -e 86 -c 2 -a 0 -i 0 -k MAC
h -t 1.003766667 -s 0 -d -1 -p ARP -e 86 -c 2 -a 0 -i 0 -k MAC
r -t 1.004455833 -s 1 -d -1 -p ARP -e 28 -c 2 -a 0 -i 0 -k MAC
+ -t 1.004465833 -s 1 -d -1 -p ACK -e 38 -c 2 -a 0 -i 0 -k MAC 
- -t 1.004465833 -s 1 -d -1 -p ACK -e 38 -c 2 -a 0 -i 0 -k MAC
h -t 1.004465833 -s 1 -d -1 -p ACK -e 38 -c 2 -a 0 -i 0 -k MAC
r -t 1.004771000 -s 0 -d -1 -p ACK -e 38 -c 2 -a 0 -i 0 -k MAC
+ -t 1.004819833 -s 1 -d -1 -p RTS -e 44 -c 2 -a 0 -i 0 -k MAC 
- -t 1.004819833 -s 1 -d -1 -p RTS -e 44 -c 2 -a 0 -i 0 -k MAC
h -t 1.004819833 -s 1 -d -1 -p RTS -e 44 -c 2 -a 0 -i 0 -k MAC
r -t 1.005173000 -s 0 -d -1 -p RTS -e 44 -c 2 -a 0 -i 0 -k MAC
+ -t 1.005183000 -s 0 -d -1 -p CTS -e 38 -c 2 -a 0 -i 0 -k MAC 
- -t 1.005183000 -s 0 -d -1 -p CTS -e 38 -c 2 -a 0 -i 0 -k MAC
h -t 1.005183000 -s 0 -d -1 -p CTS -e 38 -c 2 -a 0 -i 0 -k MAC
r -t 1.005488167 -s 1 -d -1 -p CTS -e 38 -c 2 -a 0 -i 0 -k MAC
+ -t 1.005498167 -s 1 -d 0 -p AODV -e 102 -c 2 -a 0 -i 0 -k MAC 
- -t 1.005498167 -s 1 -d 0 -p AODV -e 102 -c 2 -a 0 -i 0 -k MAC
h -t 1.005498167 -s 1 -d 0 -p AODV -e 102 -c 2 -a 0 -i 0 -k MAC
r -t 1.006315333 -s 0 -d 0 -p AODV -e 44 -c 2 -a 0 -i 0 -k MAC
+ -t 1.006325333 -s 0 -d -1 -p ACK -e 38 -c 2 -a 0 -i 0 -k MAC 
- -t 1.006325333 -s 0 -d -1 -p ACK -e 38 -c 2 -a 0 -i 0 -k MAC
h -t 1.006325333 -s 0 -d -1 -p ACK -e 38 -c 2 -a 0 -i 0 -k MAC
+ -t 1.006340333 -s 0 -d 1 -p cbr -e 532 -c 2 -a 0 -i 0 -k RTR 
- -t 1.006340333 -s 0 -d 1 -p cbr -e 532 -c 2 -a 0 -i 0 -k RTR
h -t 1.006340333 -s 0 -d 1 -p cbr -e 532 -c 2 -a 0 -i 0 -k RTR
r -t 1.006630500 -s 1 -d -1 -p ACK -e 38 -c 2 -a 0 -i 0 -k MAC
+ -t 1.006839333 -s 0 -d -1 -p RTS -e 44 -c 2 -a 0 -i 0 -k MAC 
- -t 1.006839333 -s 0 -d -1 -p RTS -e 44 -c 2 -a 0 -i 0 -k MAC
h -t 1.006839333 -s 0 -d -1 -p RTS -e 44 -c 2 -a 0 -i 0 -k MAC
r -t 1.007192500 -s 1 -d -1 -p RTS -e 44 -c 2 -a 0 -i 0 -k MAC
+ -t 1.007202500 -s 1 -d -1 -p CTS -e 38 -c 2 -a 0 -i 0 -k MAC 
- -t 1.007202500 -s 1 -d -1 -p CTS -e 38 -c 2 -a 0 -i 0 -k MAC
h -t 1.007202500 -s 1 -d -1 -p CTS -e 38 -c 2 -a 0 -i 0 -k MAC
r -t 1.007507667 -s 0 -d -1 -p CTS -e 38 -c 2 -a 0 -i 0 -k MAC
+ -t 1.007517667 -s 0 -d 1 -p cbr -e 590 -c 2 -a 0 -i 0 -k MAC 
- -t 1.007517667 -s 0 -d 1 -p cbr -e 590 -c 2 -a 0 -i 0 -k MAC
h -t 1.007517667 -s 0 -d 1 -p cbr -e 590 -c 2 -a 0 -i 0 -k MAC
r -t 1.012238833 -s 1 -d 1 -p cbr -e 532 -c 2 -a 0 -i 0 -k MAC
+ -t 1.012248833 -s 1 -d -1 -p ACK -e 38 -c 2 -a 0 -i 0 -k MAC 
- -t 1.012248833 -s 1 -d -1 -p ACK -e 38 -c 2 -a 0 -i 0 -k MAC
h -t 1.012248833 -s 1 -d -1 -p ACK -e 38 -c 2 -a 0 -i 0 -k MAC
r -t 1.012263833 -s 1 -d 1 -p cbr -e 532 -c 2 -a 0 -i 0 -k AGT
r -t 1.012554000 -s 0 -d -1 -p ACK -e 38 -c 2 -a 0 -i 0 -k MAC
+ -t 1.100000000 -s 0 -d -1 -p cbr -e 512 -c 2 -a 0 -i 1 -k AGT 
- -t 1.100000000 -s 0 -d -1 -p cbr -e 512 -c 2 -a 0 -i 1 -k AGT
h -t 1.100000000 -s 0 -d -1 -p cbr -e 512 -c 2 -a 0 -i 1 -k AGT
+ -t 1.100000000 -s 0 -d 1 -p cbr -e 532 -c 2 -a 0 -i 1 -k RTR 
- -t 1.100000000 -s 0 -d 1 -p cbr -e 532 -c 2 -a 0 -i 1 -k RTR
h -t 1.100000000 -s 0 -d 1 -p cbr -e 532 -c 2 -a 0 -i 1 -k RTR
+ -t 1.100435000 -s 0 -d -1 -p RTS -e 44 -c 2 -a 0 -i 0 -k MAC 
- -t 1.100435000 -s 0 -d -1 -p RTS -e 44 -c 2 -a 0 -i 0 -k MAC
h -t 1.100435000 -s 0 -d -1 -p RTS -e 44 -c 2 -a 0 -i 0 -k MAC
r -t 1.100788167 -s 1 -d -1 -p RTS -e 44 -c 2 -a 0 -i 0 -k MAC
+ -t 1.100798167 -s 1 -d -1 -p CTS -e 38 -c 2 -a 0 -i 0 -k MAC 
- -t 1.100798167 -s 1 -d -1 -p CTS -e 38 -c 2 -a 0 -i 0 -k MAC
h -t 1.100798167 -s 1 -d -1 -p CTS -e 38 -c 2 -a 0 -i 0 -k MAC
r -t 1.101103333 -s 0 -d -1 -p CTS -e 38 -c 2 -a 0 -i 0 -k MAC
+ -t 1.101113333 -s 0 -d 1 -p cbr -e 590 -c 2 -a 0 -i 1 -k MAC 
- -t 1.101113333 -s 0 -d 1 -p cbr -e 590 -c 2 -a 0 -i 1 -k MAC
h -t 1.101113333 -s 0 -d 1 -p cbr -e 590 -c 2 -a 0 -i 1 -k MAC
r -t 1.105834500 -s 1 -d 1 -p cbr -e 532 -c 2 -a 0 -i 1 -k MAC
+ -t 1.105844500 -s 1 -d -1 -p ACK -e 38 -c 2 -a 0 -i 0 -k MAC 
- -t 1.105844500 -s 1 -d -1 -p ACK -e 38 -c 2 -a 0 -i 0 -k MAC
h -t 1.105844500 -s 1 -d -1 -p ACK -e 38 -c 2 -a 0 -i 0 -k MAC
r -t 1.105859500 -s 1 -d 1 -p cbr -e 532 -c 2 -a 0 -i 1 -k AGT
r -t 1.106149667 -s 0 -d -1 -p ACK -e 38 -c 2 -a 0 -i 0 -k MAC
+ -t 1.200000000 -s 0 -d -1 -p cbr -e 512 -c 2 -a 0 -i 2 -k AGT 
- -t 1.200000000 -s 0 -d -1 -p cbr -e 512 -c 2 -a 0 -i 2 -k AGT
h -t 1.200000000 -s 0 -d -1 -p cbr -e 512 -c 2 -a 0 -i 2 -k AGT
+ -t 1.200000000 -s 0 -d 1 -p cbr -e 532 -c 2 -a 0 -i 2 -k RTR 
- -t 1.200000000 -s 0 -d 1 -p cbr -e 532 -c 2 -a 0 -i 2 -k RTR
h -t 1.200000000 -s 0 -d 1 -p cbr -e 532 -c 2 -a 0 -i 2 -k RTR
+ -t 1.200315000 -s 0 -d -1 -p RTS -e 44 -c 2 -a 0 -i 0 -k MAC 
- -t 1.200315000 -s 0 -d -1 -p RTS -e 44 -c 2 -a 0 -i 0 -k MAC
h -t 1.200315000 -s 0 -d -1 -p RTS -e 44 -c 2 -a 0 -i 0 -k MAC
r -t 1.200668167 -s 1 -d -1 -p RTS -e 44 -c 2 -a 0 -i 0 -k MAC
+ -t 1.200678167 -s 1 -d -1 -p CTS -e 38 -c 2 -a 0 -i 0 -k MAC 
- -t 1.200678167 -s 1 -d -1 -p CTS -e 38 -c 2 -a 0 -i 0 -k MAC
h -t 1.200678167 -s 1 -d -1 -p CTS -e 38 -c 2 -a 0 -i 0 -k MAC
r -t 1.200983333 -s 0 -d -1 -p CTS -e 38 -c 2 -a 0 -i 0 -k MAC
+ -t 1.200993333 -s 0 -d 1 -p cbr -e 590 -c 2 -a 0 -i 2 -k MAC 
- -t 1.200993333 -s 0 -d 1 -p cbr -e 590 -c 2 -a 0 -i 2 -k MAC
h -t 1.200993333 -s 0 -d 1 -p cbr -e 590 -c 2 -a 0 -i 2 -k MAC
r -t 1.205714500 -s 1 -d 1 -p cbr -e 532 -c 2 -a 0 -i 2 -k MAC
+ -t 1.205724500 -s 1 -d -1 -p ACK -e 38 -c 2 -a 0 -i 0 -k MAC 
- -t 1.205724500 -s 1 -d -1 -p ACK -e 38 -c 2 -a 0 -i 0 -k MAC
h -t 1.205724500 -s 1 -d -1 -p ACK -e 38 -c 2 -a 0 -i 0 -k MAC
r -t 1.205739500 -s 1 -d 1 -p cbr -e 532 -c 2 -a 0 -i 2 -k AGT
r -t 1.206029667 -s 0 -d -1 -p ACK -e 38 -c 2 -a 0 -i 0 -k MAC
+ -t 1.300000000 -s 0 -d -1 -p cbr -e 512 -c 2 -a 0 -i 3 -k AGT 
- -t 1.300000000 -s 0 -d -1 -p cbr -e 512 -c 2 -a 0 -i 3 -k AGT
h -t 1.300000000 -s 0 -d -1 -p cbr -e 512 -c 2 -a 0 -i 3 -k AGT
+ -t 1.300000000 -s 0 -d 1 -p cbr -e 532 -c 2 -a 0 -i 3 -k RTR 
- -t 1.300000000 -s 0 -d 1 -p cbr -e 532 -c 2 -a 0 -i 3 -k RTR
h -t 1.300000000 -s 0 -d 1 -p cbr -e 532 -c 2 -a 0 -i 3 -k RTR
+ -t 1.300615000 -s 0 -d -1 -p RTS -e 44 -c 2 -a 0 -i 0 -k MAC 
- -t 1.300615000 -s 0 -d -1 -p RTS -e 44 -c 2 -a 0 -i 0 -k MAC
h -t 1.300615000 -s 0 -d -1 -p RTS -e 44 -c 2 -a 0 -i 0 -k MAC
r -t 1.300968167 -s 1 -d -1 -p RTS -e 44 -c 2 -a 0 -i 0 -k MAC
+ -t 1.300978167 -s 1 -d -1 -p CTS -e 38 -c 2 -a 0 -i 0 -k MAC 
- -t 1.300978167 -s 1 -d -1 -p CTS -e 38 -c 2 -a 0 -i 0 -k MAC
h -t 1.300978167 -s 1 -d -1 -p CTS -e 38 -c 2 -a 0 -i 0 -k MAC
r -t 1.301283333 -s 0 -d -1 -p CTS -e 38 -c 2 -a 0 -i 0 -k MAC
+ -t 1.301293333 -s 0 -d 1 -p cbr -e 590 -c 2 -a 0 -i 3 -k MAC 
- -t 1.301293333 -s 0 -d 1 -p cbr -e 590 -c 2 -a 0 -i 3 -k MAC
h -t 1.301293333 -s 0 -d 1 -p cbr -e 590 -c 2 -a 0 -i 3 -k MAC
r -t 1.306014500 -s 1 -d 1 -p cbr -e 532 -c 2 -a 0 -i 3 -k MAC
+ -t 1.306024500 -s 1 -d -1 -p ACK -e 38 -c 2 -a 0 -i 0 -k MAC 
- -t 1.306024500 -s 1 -d -1 -p ACK -e 38 -c 2 -a 0 -i 0 -k MAC
h -t 1.306024500 -s 1 -d -1 -p ACK -e 38 -c 2 -a 0 -i 0 -k MAC
r -t 1.306039500 -s 1 -d 1 -p cbr -e 532 -c 2 -a 0 -i 3 -k AGT
r -t 1.306329667 -s 0 -d -1 -p ACK -e 38 -c 2 -a 0 -i 0 -k MAC
+ -t 1.400000000 -s 0 -d -1 -p cbr -e 512 -c 2 -a 0 -i 4 -k AGT 
- -t 1.400000000 -s 0 -d -1 -p cbr -e 512 -c 2 -a 0 -i 4 -k AGT
h -t 1.400000000 -s 0 -d -1 -p cbr -e 512 -c 2 -a 0 -i 4 -k AGT
+ -t 1.400000000 -s 0 -d 1 -p cbr -e 532 -c 2 -a 0 -i 4 -k RTR 
- -t 1.400000000 -s 0 -d 1 -p cbr -e 532 -c 2 -a 0 -i 4 -k RTR
h -t 1.400000000 -s 0 -d 1 -p cbr -e 532 -c 2 -a 0 -i 4 -k RTR
+ -t 1.400435000 -s 0 -d -1 -p RTS -e 44 -c 2 -a 0 -i 0 -k MAC 
- -t 1.400435000 -s 0 -d -1 -p RTS -e 44 -c 2 -a 0 -i 0 -k MAC
h -t 1.400435000 -s 0 -d -1 -p RTS -e 44 -c 2 -a 0 -i 0 -k MAC
r -t 1.400788167 -s 1 -d -1 -p RTS -e 44 -c 2 -a 0 -i 0 -k MAC
+ -t 1.400798167 -s 1 -d -1 -p CTS -e 38 -c 2 -a 0 -i 0 -k MAC 
- -t 1.400798167 -s 1 -d -1 -p CTS -e 38 -c 2 -a 0 -i 0 -k MAC
h -t 1.400798167 -s 1 -d -1 -p CTS -e 38 -c 2 -a 0 -i 0 -k MAC
r -t 1.401103333 -s 0 -d -1 -p CTS -e 38 -c 2 -a 0 -i 0 -k MAC
+ -t 1.401113333 -s 0 -d 1 -p cbr -e 590 -c 2 -a 0 -i 4 -k MAC 
- -t 1.401113333 -s 0 -d 1 -p cbr -e 590 -c 2 -a 0 -i 4 -k MAC
h -t 1.401113333 -s 0 -d 1 -p cbr -e 590 -c 2 -a 0 -i 4 -k MAC
r -t 1.405834500 -s 1 -d 1 -p cbr -e 532 -c 2 -a 0 -i 4 -k MAC
+ -t 1.405844500 -s 1 -d -1 -p ACK -e 38 -c 2 -a 0 -i 0 -k MAC 
- -t 1.405844500 -s 1 -d -1 -p ACK -e 38 -c 2 -a 0 -i 0 -k MAC
h -t 1.405844500 -s 1 -d -1 -p ACK -e 38 -c 2 -a 0 -i 0 -k MAC
r -t 1.405859500 -s 1 -d 1 -p cbr -e 532 -c 2 -a 0 -i 4 -k AGT
r -t 1.406149667 -s 0 -d -1 -p ACK -e 38 -c 2 -a 0 -i 0 -k MAC
+ -t 1.500000000 -s 0 -d -1 -p cbr -e 512 -c 2 -a 0 -i 5 -k AGT 
- -t 1.500000000 -s 0 -d -1 -p cbr -e 512 -c 2 -a 0 -i 5 -k AGT
h -t 1.500000000 -s 0 -d -1 -p cbr -e 512 -c 2 -a 0 -i 5 -k AGT
+ -t 1.500000000 -s 0 -d 1 -p cbr -e 532 -c 2 -a 0 -i 5 -k RTR 
- -t 1.500000000 -s 0 -d 1 -p cbr -e 532 -c 2 -a 0 -i 5 -k RTR
h -t 1.500000000 -s 0 -d 1 -p cbr -e 532 -c 2 -a 0 -i 5 -k RTR
+ -t 1.500235000 -s 0 -d -1 -p RTS -e 44 -c 2 -a 0 -i 0 -k MAC 
- -t 1.500235000 -s 0 -d -1 -p RTS -e 44 -c 2 -a 0 -i 0 -k MAC
h -t 1.500235000 -s 0 -d -1 -p RTS -e 44 -c 2 -a 0 -i 0 -k MAC
r -t 1.500588167 -s 1 -d -1 -p RTS -e 44 -c 2 -a 0 -i 0 -k MAC
+ -t 1.500598167 -s 1 -d -1 -p CTS -e 38 -c 2 -a 0 -i 0 -k MAC 
- -t 1.500598167 -s 1 -d -1 -p CTS -e 38 -c 2 -a 0 -i 0 -k MAC
h -t 1.500598167 -s 1 -d -1 -p CTS -e 38 -c 2 -a 0 -i 0 -k MAC
r -t 1.500903333 -s 0 -d -1 -p CTS -e 38 -c 2 -a 0 -i 0 -k MAC
+ -t 1.500913333 -s 0 -d 1 -p cbr -e 590 -c 2 -a 0 -i 5 -k MAC 
- -t 1.500913333 -s 0 -d 1 -p cbr -e 590 -c 2 -a 0 -i 5 -k MAC
h -t 1.500913333 -s 0 -d 1 -p cbr -e 590 -c 2 -a 0 -i 5 -k MAC
r -t 1.505634500 -s 1 -d 1 -p cbr -e 532 -c 2 -a 0 -i 5 -k MAC
+ -t 1.505644500 -s 1 -d -1 -p ACK -e 38 -c 2 -a 0 -i 0 -k MAC 
- -t 1.505644500 -s 1 -d -1 -p ACK -e 38 -c 2 -a 0 -i 0 -k MAC
h -t 1.505644500 -s 1 -d -1 -p ACK -e 38 -c 2 -a 0 -i 0 -k MAC
r -t 1.505659500 -s 1 -d 1 -p cbr -e 532 -c 2 -a 0 -i 5 -k AGT
r -t 1.505949667 -s 0 -d -1 -p ACK -e 38 -c 2 -a 0 -i 0 -k MAC
+ -t 1.600000000 -s 0 -d -1 -p cbr -e 512 -c 2 -a 0 -i 6 -k AGT 
- -t 1.600000000 -s 0 -d -1 -p cbr -e 512 -c 2 -a 0 -i 6 -k AGT
h -t 1.600000000 -s 0 -d -1 -p cbr -e 512 -c 2 -a 0 -i 6 -k AGT
+ -t 1.600000000 -s 0 -d 1 -p cbr -e 532 -c 2 -a 0 -i 6 -k RTR 
- -t 1.600000000 -s 0 -d 1 -p cbr -e 532 -c 2 -a 0 -i 6 -k RTR
h -t 1.600000000 -s 0 -d 1 -p cbr -e 532 -c 2 -a 0 -i 6 -k RTR
+ -t 1.600415000 -s 0 -d -1 -p RTS -e 44 -c 2 -a 0 -i 0 -k MAC 
- -t 1.600415000 -s 0 -d -1 -p RTS -e 44 -c 2 -a 0 -i 0 -k MAC
h -t 1.600415000 -s 0 -d -1 -p RTS -e 44 -c 2 -a 0 -i 0 -k MAC
r -t 1.600768167 -s 1 -d -1 -p RTS -e 44 -c 2 -a 0 -i 0 -k MAC
+ -t 1.600778167 -s 1 -d -1 -p CTS -e 38 -c 2 -a 0 -i 0 -k MAC 
- -t 1.600778167 -s 1 -d -1 -p CTS -e 38 -c 2 -a 0 -i 0 -k MAC
h -t 1.600778167 -s 1 -d -1 -p CTS -e 38 -c 2 -a 0 -i 0 -k MAC
r -t 1.601083333 -s 0 -d -1 -p CTS -e 38 -c 2 -a 0 -i 0 -k MAC
+ -t 1.601093333 -s 0 -d 1 -p cbr -e 590 -c 2 -a 0 -i 6 -k MAC 
- -t 1.601093333 -s 0 -d 1 -p cbr -e 590 -c 2 -a 0 -i 6 -k MAC
h -t 1.601093333 -s 0 -d 1 -p cbr -e 590 -c 2 -a 0 -i 6 -k MAC
r -t 1.605814500 -s 1 -d 1 -p cbr -e 532 -c 2 -a 0 -i 6 -k MAC
+ -t 1.605824500 -s 1 -d -1 -p ACK -e 38 -c 2 -a 0 -i 0 -k MAC 
- -t 1.605824500 -s 1 -d -1 -p ACK -e 38 -c 2 -a 0 -i 0 -k MAC
h -t 1.605824500 -s 1 -d -1 -p ACK -e 38 -c 2 -a 0 -i 0 -k MAC
r -t 1.605839500 -s 1 -d 1 -p cbr -e 532 -c 2 -a 0 -i 6 -k AGT
r -t 1.606129667 -s 0 -d -1 -p ACK -e 38 -c 2 -a 0 -i 0 -k MAC
+ -t 1.700000000 -s 0 -d -1 -p cbr -e 512 -c 2 -a 0 -i 7 -k AGT 
- -t 1.700000000 -s 0 -d -1 -p cbr -e 512 -c 2 -a 0 -i 7 -k AGT
h -t 1.700000000 -s 0 -d -1 -p cbr -e 512 -c 2 -a 0 -i 7 -k AGT
+ -t 1.700000000 -s 0 -d 1 -p cbr -e 532 -c 2 -a 0 -i 7 -k RTR 
- -t 1.700000000 -s 0 -d 1 -p cbr -e 532 -c 2 -a 0 -i 7 -k RTR
h -t 1.700000000 -s 0 -d 1 -p cbr -e 532 -c 2 -a 0 -i 7 -k RTR
+ -t 1.700275000 -s 0 -d -1 -p RTS -e 44 -c 2 -a 0 -i 0 -k MAC 
- -t 1.700275000 -s 0 -d -1 -p RTS -e 44 -c 2 -a 0 -i 0 -k MAC
h -t 1.700275000 -s 0 -d -1 -p RTS -e 44 -c 2 -a 0 -i 0 -k MAC
r -t 1.700628167 -s 1 -d -1 -p RTS -e 44 -c 2 -a 0 -i 0 -k MAC
+ -t 1.700638167 -s 1 -d -1 -p CTS -e 38 -c 2 -a 0 -i 0 -k MAC 
- -t 1.700638167 -s 1 -d -1 -p CTS -e 38 -c 2 -a 0 -i 0 -k MAC
h -t 1.700638167 -s 1 -d -1 -p CTS -e 38 -c 2 -a 0 -i 0 -k MAC
r -t 1.700943333 -s 0 -d -1 -p CTS -e 38 -c 2 -a 0 -i 0 -k MAC
+ -t 1.700953333 -s 0 -d 1 -p cbr -e 590 -c 2 -a 0 -i 7 -k MAC 
- -t 1.700953333 -s 0 -d 1 -p cbr -e 590 -c 2 -a 0 -i 7 -k MAC
h -t 1.700953333 -s 0 -d 1 -p cbr -e 590 -c 2 -a 0 -i 7 -k MAC
r -t 1.705674500 -s 1 -d 1 -p cbr -e 532 -c 2 -a 0 -i 7 -k MAC
+ -t 1.705684500 -s 1 -d -1 -p ACK -e 38 -c 2 -a 0 -i 0 -k MAC 
- -t 1.705684500 -s 1 -d -1 -p ACK -e 38 -c 2 -a 0 -i 0 -k MAC
h -t 1.705684500 -s 1 -d -1 -p ACK -e 38 -c 2 -a 0 -i 0 -k MAC
r -t 1.705699500 -s 1 -d 1 -p cbr -e 532 -c 2 -a 0 -i 7 -k AGT
r -t 1.705989667 -s 0 -d -1 -p ACK -e 38 -c 2 -a 0 -i 0 -k MAC
+ -t 1.800000000 -s 0 -d -1 -p cbr -e 512 -c 2 -a 0 -i 8 -k AGT 
- -t 1.800000000 -s 0 -d -1 -p cbr -e 512 -c 2 -a 0 -i 8 -k AGT
h -t 1.800000000 -s 0 -d -1 -p cbr -e 512 -c 2 -a 0 -i 8 -k AGT
+ -t 1.800000000 -s 0 -d 1 -p cbr -e 532 -c 2 -a 0 -i 8 -k RTR 
- -t 1.800000000 -s 0 -d 1 -p cbr -e 532 -c 2 -a 0 -i 8 -k RTR
h -t 1.800000000 -s 0 -d 1 -p cbr -e 532 -c 2 -a 0 -i 8 -k RTR
+ -t 1.800095000 -s 0 -d -1 -p RTS -e 44 -c 2 -a 0 -i 0 -k MAC 
- -t 1.800095000 -s 0 -d -1 -p RTS -e 44 -c 2 -a 0 -i 0 -k MAC
h -t 1.800095000 -s 0 -d -1 -p RTS -e 44 -c 2 -a 0 -i 0 -k MAC
r -t 1.800448167 -s 1 -d -1 -p RTS -e 44 -c 2 -a 0 -i 0 -k MAC
+ -t 1.800458167 -s 1 -d -1 -p CTS -e 38 -c 2 -a 0 -i 0 -k MAC 
- -t 1.800458167 -s 1 -d -1 -p CTS -e 38 -c 2 -a 0 -i 0 -k MAC
h -t 1.800458167 -s 1 -d -1 -p CTS -e 38 -c 2 -a 0 -i 0 -k MAC
r -t 1.800763333 -s 0 -d -1 -p CTS -e 38 -c 2 -a 0 -i 0 -k MAC
+ -t 1.800773333 -s 0 -d 1 -p cbr -e 590 -c 2 -a 0 -i 8 -k MAC 
- -t 1.800773333 -s 0 -d 1 -p cbr -e 590 -c 2 -a 0 -i 8 -k MAC
h -t 1.800773333 -s 0 -d 1 -p cbr -e 590 -c 2 -a 0 -i 8 -k MAC
r -t 1.805494500 -s 1 -d 1 -p cbr -e 532 -c 2 -a 0 -i 8 -k MAC
+ -t 1.805504500 -s 1 -d -1 -p ACK -e 38 -c 2 -a 0 -i 0 -k MAC 
- -t 1.805504500 -s 1 -d -1 -p ACK -e 38 -c 2 -a 0 -i 0 -k MAC
h -t 1.805504500 -s 1 -d -1 -p ACK -e 38 -c 2 -a 0 -i 0 -k MAC
r -t 1.805519500 -s 1 -d 1 -p cbr -e 532 -c 2 -a 0 -i 8 -k AGT
r -t 1.805809667 -s 0 -d -1 -p ACK -e 38 -c 2 -a 0 -i 0 -k MAC
+ -t 1.900000000 -s 0 -d -1 -p cbr -e 512 -c 2 -a 0 -i 9 -k AGT 
- -t 1.900000000 -s 0 -d -1 -p cbr -e 512 -c 2 -a 0 -i 9 -k AGT
h -t 1.900000000 -s 0 -d -1 -p cbr -e 512 -c 2 -a 0 -i 9 -k AGT
+ -t 1.900000000 -s 0 -d 1 -p cbr -e 532 -c 2 -a 0 -i 9 -k RTR 
- -t 1.900000000 -s 0 -d 1 -p cbr -e 532 -c 2 -a 0 -i 9 -k RTR
h -t 1.900000000 -s 0 -d 1 -p cbr -e 532 -c 2 -a 0 -i 9 -k RTR
+ -t 1.900515000 -s 0 -d -1 -p RTS -e 44 -c 2 -a 0 -i 0 -k MAC 
- -t 1.900515000 -s 0 -d -1 -p RTS -e 44 -c 2 -a 0 -i 0 -k MAC
h -t 1.900515000 -s 0 -d -1 -p RTS -e 44 -c 2 -a 0 -i 0 -k MAC
r -t 1.900868167 -s 1 -d -1 -p RTS -e 44 -c 2 -a 0 -i 0 -k MAC
+ -t 1.900878167 -s 1 -d -1 -p CTS -e 38 -c 2 -a 0 -i 0 -k MAC 
- -t 1.900878167 -s 1 -d -1 -p CTS -e 38 -c 2 -a 0 -i 0 -k MAC
h -t 1.900878167 -s 1 -d -1 -p CTS -e 38 -c 2 -a 0 -i 0 -k MAC
r -t 1.901183333 -s 0 -d -1 -p CTS -e 38 -c 2 -a 0 -i 0 -k MAC
+ -t 1.901193333 -s 0 -d 1 -p cbr -e 590 -c 2 -a 0 -i 9 -k MAC 
- -t 1.901193333 -s 0 -d 1 -p cbr -e 590 -c 2 -a 0 -i 9 -k MAC
h -t 1.901193333 -s 0 -d 1 -p cbr -e 590 -c 2 -a 0 -i 9 -k MAC
r -t 1.905914500 -s 1 -d 1 -p cbr -e 532 -c 2 -a 0 -i 9 -k MAC
+ -t 1.905924500 -s 1 -d -1 -p ACK -e 38 -c 2 -a 0 -i 0 -k MAC 
- -t 1.905924500 -s 1 -d -1 -p ACK -e 38 -c 2 -a 0 -i 0 -k MAC
h -t 1.905924500 -s 1 -d -1 -p ACK -e 38 -c 2 -a 0 -i 0 -k MAC
r -t 1.905939500 -s 1 -d 1 -p cbr -e 532 -c 2 -a 0 -i 9 -k AGT
r -t 1.906229667 -s 0 -d -1 -p ACK -e 38 -c 2 -a 0 -i 0 -k MAC
+ -t 2.000000000 -s 0 -d -1 -p cbr -e 512 -c 2 -a 0 -i 10 -k AGT 
- -t 2.000000000 -s 0 -d -1 -p cbr -e 512 -c 2 -a 0 -i 10 -k AGT
h -t 2.000000000 -s 0 -d -1 -p cbr -e 512 -c 2 -a 0 -i 10 -k AGT
+ -t 2.000000000 -s 0 -d 1 -p cbr -e 532 -c 2 -a 0 -i 10 -k RTR 
- -t 2.000000000 -s 0 -d 1 -p cbr -e 532 -c 2 -a 0 -i 10 -k RTR
h -t 2.000000000 -s 0 -d 1 -p cbr -e 532 -c 2 -a 0 -i 10 -k RTR
+ -t 2.000655000 -s 0 -d -1 -p RTS -e 44 -c 2 -a 0 -i 0 -k MAC 
- -t 2.000655000 -s 0 -d -1 -p RTS -e 44 -c 2 -a 0 -i 0 -k MAC
h -t 2.000655000 -s 0 -d -1 -p RTS -e 44 -c 2 -a 0 -i 0 -k MAC
r -t 2.001008167 -s 1 -d -1 -p RTS -e 44 -c 2 -a 0 -i 0 -k MAC
+ -t 2.001018167 -s 1 -d -1 -p CTS -e 38 -c 2 -a 0 -i 0 -k MAC 
- -t 2.001018167 -s 1 -d -1 -p CTS -e 38 -c 2 -a 0 -i 0 -k MAC
h -t 2.001018167 -s 1 -d -1 -p CTS -e 38 -c 2 -a 0 -i 0 -k MAC
r -t 2.001323333 -s 0 -d -1 -p CTS -e 38 -c 2 -a 0 -i 0 -k MAC
+ -t 2.001333333 -s 0 -d 1 -p cbr -e 590 -c 2 -a 0 -i 10 -k MAC 
- -t 2.001333333 -s 0 -d 1 -p cbr -e 590 -c 2 -a 0 -i 10 -k MAC
h -t 2.001333333 -s 0 -d 1 -p cbr -e 590 -c 2 -a 0 -i 10 -k MAC
r -t 2.006054500 -s 1 -d 1 -p cbr -e 532 -c 2 -a 0 -i 10 -k MAC
+ -t 2.006064500 -s 1 -d -1 -p ACK -e 38 -c 2 -a 0 -i 0 -k MAC 
- -t 2.006064500 -s 1 -d -1 -p ACK -e 38 -c 2 -a 0 -i 0 -k MAC
h -t 2.006064500 -s 1 -d -1 -p ACK -e 38 -c 2 -a 0 -i 0 -k MAC
r -t 2.006079500 -s 1 -d 1 -p cbr -e 532 -c 2 -a 0 -i 10 -k AGT
r -t 2.006369667 -s 0 -d -1 -p ACK -e 38 -c 2 -a 0 -i 0 -k MAC
+ -t 2.100000000 -s 0 -d -1 -p cbr -e 512 -c 2 -a 0 -i 11 -k AGT 
- -t 2.100000000 -s 0 -d -1 -p cbr -e 512 -c 2 -a 0 -i 11 -k AGT
h -t 2.100000000 -s 0 -d -1 -p cbr -e 512 -c 2 -a 0 -i 11 -k AGT
+ -t 2.100000000 -s 0 -d 1 -p cbr -e 532 -c 2 -a 0 -i 11 -k RTR 
- -t 2.100000000 -s 0 -d 1 -p cbr -e 532 -c 2 -a 0 -i 11 -k RTR
h -t 2.100000000 -s 0 -d 1 -p cbr -e 532 -c 2 -a 0 -i 11 -k RTR
+ -t 2.100615000 -s 0 -d -1 -p RTS -e 44 -c 2 -a 0 -i 0 -k MAC 
- -t 2.100615000 -s 0 -d -1 -p RTS -e 44 -c 2 -a 0 -i 0 -k MAC
h -t 2.100615000 -s 0 -d -1 -p RTS -e 44 -c 2 -a 0 -i 0 -k MAC
r -t 2.100968167 -s 1 -d -1 -p RTS -e 44 -c 2 -a 0 -i 0 -k MAC
+ -t 2.100978167 -s 1 -d -1 -p CTS -e 38 -c 2 -a 0 -i 0 -k MAC 
- -t 2.100978167 -s 1 -d -1 -p CTS -e 38 -c 2 -a 0 -i 0 -k MAC
h -t 2.100978167 -s 1 -d -1 -p CTS -e 38 -c 2 -a 0 -i 0 -k MAC
r -t 2.101283333 -s 0 -d -1 -p CTS -e 38 -c 2 -a 0 -i 0 -k MAC
+ -t 2.101293333 -s 0 -d 1 -p cbr -e 590 -c 2 -a 0 -i 11 -k MAC 
- -t 2.101293333 -s 0 -d 1 -p cbr -e 590 -c 2 -a 0 -i 11 -k MAC
h -t 2.101293333 -s 0 -d 1 -p cbr -e 590 -c 2 -a 0 -i 11 -k MAC
r -t 2.106014500 -s 1 -d 1 -p cbr -e 532 -c 2 -a 0 -i 11 -k MAC
+ -t 2.106024500 -s 1 -d -1 -p ACK -e 38 -c 2 -a 0 -i 0 -k MAC 
- -t 2.106024500 -s 1 -d -1 -p ACK -e 38 -c 2 -a 0 -i 0 -k MAC
h -t 2.106024500 -s 1 -d -1 -p ACK -e 38 -c 2 -a 0 -i 0 -k MAC
r -t 2.106039500 -s 1 -d 1 -p cbr -e 532 -c 2 -a 0 -i 11 -k AGT
r -t 2.106329667 -s 0 -d -1 -p ACK -e 38 -c 2 -a 0 -i 0 -k MAC
+ -t 2.200000000 -s 0 -d -1 -p cbr -e 512 -c 2 -a 0 -i 12 -k AGT 
- -t 2.200000000 -s 0 -d -1 -p cbr -e 512 -c 2 -a 0 -i 12 -k AGT
h -t 2.200000000 -s 0 -d -1 -p cbr -e 512 -c 2 -a 0 -i 12 -k AGT
+ -t 2.200000000 -s 0 -d 1 -p cbr -e 532 -c 2 -a 0 -i 12 -k RTR 
- -t 2.200000000 -s 0 -d 1 -p cbr -e 532 -c 2 -a 0 -i 12 -k RTR
h -t 2.200000000 -s 0 -d 1 -p cbr -e 532 -c 2 -a 0 -i 12 -k RTR
+ -t 2.200115000 -s 0 -d -1 -p RTS -e 44 -c 2 -a 0 -i 0 -k MAC 
- -t 2.200115000 -s 0 -d -1 -p RTS -e 44 -c 2 -a 0 -i 0 -k MAC
h -t 2.200115000 -s 0 -d -1 -p RTS -e 44 -c 2 -a 0 -i 0 -k MAC
r -t 2.200468167 -s 1 -d -1 -p RTS -e 44 -c 2 -a 0 -i 0 -k MAC
+ -t 2.200478167 -s 1 -d -1 -p CTS -e 38 -c 2 -a 0 -i 0 -k MAC 
- -t 2.200478167 -s 1 -d -1 -p CTS -e 38 -c 2 -a 0 -i 0 -k MAC
h -t 2.200478167 -s 1 -d -1 -p CTS -e 38 -c 2 -a 0 -i 0 -k MAC
r -t 2.200783333 -s 0 -d -1 -p CTS -e 38 -c 2 -a 0 -i 0 -k MAC
+ -t 2.200793333 -s 0 -d 1 -p cbr -e 590 -c 2 -a 0 -i 12 -k MAC 
- -t 2.200793333 -s 0 -d 1 -p cbr -e 590 -c 2 -a 0 -i 12 -k MAC
h -t 2.200793333 -s 0 -d 1 -p cbr -e 590 -c 2 -a 0 -i 12 -k MAC
r -t 2.205514500 -s 1 -d 1 -p cbr -e 532 -c 2 -a 0 -i 12 -k MAC
+ -t 2.205524500 -s 1 -d -1 -p ACK -e 38 -c 2 -a 0 -i 0 -k MAC 
- -t 2.205524500 -s 1 -d -1 -p ACK -e 38 -c 2 -a 0 -i 0 -k MAC
h -t 2.205524500 -s 1 -d -1 -p ACK -e 38 -c 2 -a 0 -i 0 -k MAC
r -t 2.205539500 -s 1 -d 1 -p cbr -e 532 -c 2 -a 0 -i 12 -k AGT
r -t 2.205829667 -s 0 -d -1 -p ACK -e 38 -c 2 -a 0 -i 0 -k MAC
+ -t 2.300000000 -s 0 -d -1 -p cbr -e 512 -c 2 -a 0 -i 13 -k AGT 
- -t 2.300000000 -s 0 -d -1 -p cbr -e 512 -c 2 -a 0 -i 13 -k AGT
h -t 2.300000000 -s 0 -d -1 -p cbr -e 512 -c 2 -a 0 -i 13 -k AGT
+ -t 2.300000000 -s 0 -d 1 -p cbr -e 532 -c 2 -a 0 -i 13 -k RTR 
- -t 2.300000000 -s 0 -d 1 -p cbr -e 532 -c 2 -a 0 -i 13 -k RTR
h -t 2.300000000 -s 0 -d 1 -p cbr -e 532 -c 2 -a 0 -i 13 -k RTR
+ -t 2.300435000 -s 0 -d -1 -p RTS -e 44 -c 2 -a 0 -i 0 -k MAC 
- -t 2.300435000 -s 0 -d -1 -p RTS -e 44 -c 2 -a 0 -i 0 -k MAC
h -t 2.300435000 -s 0 -d -1 -p RTS -e 44 -c 2 -a 0 -i 0 -k MAC
r -t 2.300788167 -s 1 -d -1 -p RTS -e 44 -c 2 -a 0 -i 0 -k MAC
+ -t 2.300798167 -s 1 -d -1 -p CTS -e 38 -c 2 -a 0 -i 0 -k MAC 
- -t 2.300798167 -s 1 -d -1 -p CTS -e 38 -c 2 -a 0 -i 0 -k MAC
h -t 2.300798167 -s 1 -d -1 -p CTS -e 38 -c 2 -a 0 -i 0 -k MAC
r -t 2.301103333 -s 0 -d -1 -p CTS -e 38 -c 2 -a 0 -i 0 -k MAC
+ -t 2.301113333 -s 0 -d 1 -p cbr -e 590 -c 2 -a 0 -i 13 -k MAC 
- -t 2.301113333 -s 0 -d 1 -p cbr -e 590 -c 2 -a 0 -i 13 -k MAC
h -t 2.301113333 -s 0 -d 1 -p cbr -e 590 -c 2 -a 0 -i 13 -k MAC
r -t 2.305834500 -s 1 -d 1 -p cbr -e 532 -c 2 -a 0 -i 13 -k MAC
+ -t 2.305844500 -s 1 -d -1 -p ACK -e 38 -c 2 -a 0 -i 0 -k MAC 
- -t 2.305844500 -s 1 -d -1 -p ACK -e 38 -c 2 -a 0 -i 0 -k MAC
h -t 2.305844500 -s 1 -d -1 -p ACK -e 38 -c 2 -a 0 -i 0 -k MAC
r -t 2.305859500 -s 1 -d 1 -p cbr -e 532 -c 2 -a 0 -i 13 -k AGT
r -t 2.306149667 -s 0 -d -1 -p ACK -e 38 -c 2 -a 0 -i 0 -k MAC
+ -t 2.400000000 -s 0 -d -1 -p cbr -e 512 -c 2 -a 0 -i 14 -k AGT 
- -t 2.400000000 -s 0 -d -1 -p cbr -e 512 -c 2 -a 0 -i 14 -k AGT
h -t 2.400000000 -s 0 -d -1 -p cbr -e 512 -c 2 -a 0 -i 14 -k AGT
+ -t 2.400000000 -s 0 -d 1 -p cbr -e 532 -c 2 -a 0 -i 14 -k RTR 
- -t 2.400000000 -s 0 -d 1 -p cbr -e 532 -c 2 -a 0 -i 14 -k RTR
h -t 2.400000000 -s 0 -d 1 -p cbr -e 532 -c 2 -a 0 -i 14 -k RTR
+ -t 2.400155000 -s 0 -d -1 -p RTS -e 44 -c 2 -a 0 -i 0 -k MAC 
- -t 2.400155000 -s 0 -d -1 -p RTS -e 44 -c 2 -a 0 -i 0 -k MAC
h -t 2.400155000 -s 0 -d -1 -p RTS -e 44 -c 2 -a 0 -i 0 -k MAC
r -t 2.400508167 -s 1 -d -1 -p RTS -e 44 -c 2 -a 0 -i 0 -k MAC
+ -t 2.400518167 -s 1 -d -1 -p CTS -e 38 -c 2 -a 0 -i 0 -k MAC 
- -t 2.400518167 -s 1 -d -1 -p CTS -e 38 -c 2 -a 0 -i 0 -k MAC
h -t 2.400518167 -s 1 -d -1 -p CTS -e 38 -c 2 -a 0 -i 0 -k MAC
r -t 2.400823333 -s 0 -d -1 -p CTS -e 38 -c 2 -a 0 -i 0 -k MAC
+ -t 2.400833333 -s 0 -d 1 -p cbr -e 590 -c 2 -a 0 -i 14 -k MAC 
- -t 2.400833333 -s 0 -d 1 -p cbr -e 590 -c 2 -a 0 -i 14 -k MAC
h -t 2.400833333 -s 0 -d 1 -p cbr -e 590 -c 2 -a 0 -i 14 -k MAC
r -t 2.405554500 -s 1 -d 1 -p cbr -e 532 -c 2 -a 0 -i 14 -k MAC
+ -t 2.405564500 -s 1 -d -1 -p ACK -e 38 -c 2 -a 0 -i 0 -k MAC 
- -t 2.405564500 -s 1 -d -1 -p ACK -e 38 -c 2 -a 0 -i 0 -k MAC
h -t 2.405564500 -s 1 -d -1 -p ACK -e 38 -c 2 -a 0 -i 0 -k MAC
r -t 2.405579500 -s 1 -d 1 -p cbr -e 532 -c 2 -a 0 -i 14 -k AGT
r -t 2.405869667 -s 0 -d -1 -p ACK -e 38 -c 2 -a 0 -i 0 -k MAC
+ -t 2.500000000 -s 0 -d -1 -p cbr -e 512 -c 2 -a 0 -i 15 -k AGT 
- -t 2.500000000 -s 0 -d -1 -p cbr -e 512 -c 2 -a 0 -i 15 -k AGT
h -t 2.500000000 -s 0 -d -1 -p cbr -e 512 -c 2 -a 0 -i 15 -k AGT
+ -t 2.500000000 -s 0 -d 1 -p cbr -e 532 -c 2 -a 0 -i 15 -k RTR 
- -t 2.500000000 -s 0 -d 1 -p cbr -e 532 -c 2 -a 0 -i 15 -k RTR
h -t 2.500000000 -s 0 -d 1 -p cbr -e 532 -c 2 -a 0 -i 15 -k RTR
+ -t 2.500275000 -s 0 -d -1 -p RTS -e 44 -c 2 -a 0 -i 0 -k MAC 
- -t 2.500275000 -s 0 -d -1 -p RTS -e 44 -c 2 -a 0 -i 0 -k MAC
h -t 2.500275000 -s 0 -d -1 -p RTS -e 44 -c 2 -a 0 -i 0 -k MAC
r -t 2.500628167 -s 1 -d -1 -p RTS -e 44 -c 2 -a 0 -i 0 -k MAC
+ -t 2.500638167 -s 1 -d -1 -p CTS -e 38 -c 2 -a 0 -i 0 -k MAC 
- -t 2.500638167 -s 1 -d -1 -p CTS -e 38 -c 2 -a 0 -i 0 -k MAC
h -t 2.500638167 -s 1 -d -1 -p CTS -e 38 -c 2 -a 0 -i 0 -k MAC
r -t 2.500943333 -s 0 -d -1 -p CTS -e 38 -c 2 -a 0 -i 0 -k MAC
+ -t 2.500953333 -s 0 -d 1 -p cbr -e 590 -c 2 -a 0 -i 15 -k MAC 
- -t 2.500953333 -s 0 -d 1 -p cbr -e 590 -c 2 -a 0 -i 15 -k MAC
h -t 2.500953333 -s 0 -d 1 -p cbr -e 590 -c 2 -a 0 -i 15 -k MAC
r -t 2.505674500 -s 1 -d 1 -p cbr -e 532 -c 2 -a 0 -i 15 -k MAC
+ -t 2.505684500 -s 1 -d -1 -p ACK -e 38 -c 2 -a 0 -i 0 -k MAC 
- -t 2.505684500 -s 1 -d -1 -p ACK -e 38 -c 2 -a 0 -i 0 -k MAC
h -t 2.505684500 -s 1 -d -1 -p ACK -e 38 -c 2 -a 0 -i 0 -k MAC
r -t 2.505699500 -s 1 -d 1 -p cbr -e 532 -c 2 -a 0 -i 15 -k AGT
r -t 2.505989667 -s 0 -d -1 -p ACK -e 38 -c 2 -a 0 -i 0 -k MAC
+ -t 2.600000000 -s 0 -d -1 -p cbr -e 512 -c 2 -a 0 -i 16 -k AGT 
- -t 2.600000000 -s 0 -d -1 -p cbr -e 512 -c 2 -a 0 -i 16 -k AGT
h -t 2.600000000 -s 0 -d -1 -p cbr -e 512 -c 2 -a 0 -i 16 -k AGT
+ -t 2.600000000 -s 0 -d 1 -p cbr -e 532 -c 2 -a 0 -i 16 -k RTR 
- -t 2.600000000 -s 0 -d 1 -p cbr -e 532 -c 2 -a 0 -i 16 -k RTR
h -t 2.600000000 -s 0 -d 1 -p cbr -e 532 -c 2 -a 0 -i 16 -k RTR
+ -t 2.600595000 -s 0 -d -1 -p RTS -e 44 -c 2 -a 0 -i 0 -k MAC 
- -t 2.600595000 -s 0 -d -1 -p RTS -e 44 -c 2 -a 0 -i 0 -k MAC
h -t 2.600595000 -s 0 -d -1 -p RTS -e 44 -c 2 -a 0 -i 0 -k MAC
r -t 2.600948167 -s 1 -d -1 -p RTS -e 44 -c 2 -a 0 -i 0 -k MAC
+ -t 2.600958167 -s 1 -d -1 -p CTS -e 38 -c 2 -a 0 -i 0 -k MAC 
- -t 2.600958167 -s 1 -d -1 -p CTS -e 38 -c 2 -a 0 -i 0 -k MAC
h -t 2.600958167 -s 1 -d -1 -p CTS -e 38 -c 2 -a 0 -i 0 -k MAC
r -t 2.601263333 -s 0 -d -1 -p CTS -e 38 -c 2 -a 0 -i 0 -k MAC
+ -t 2.601273333 -s 0 -d 1 -p cbr -e 590 -c 2 -a 0 -i 16 -k MAC 
- -t 2.601273333 -s 0 -d 1 -p cbr -e 590 -c 2 -a 0 -i 16 -k MAC
h -t 2.601273333 -s 0 -d 1 -p cbr -e 590 -c 2 -a 0 -i 16 -k MAC
r -t 2.605994500 -s 1 -d 1 -p cbr -e 532 -c 2 -a 0 -i 16 -k MAC
+ -t 2.606004500 -s 1 -d -1 -p ACK -e 38 -c 2 -a 0 -i 0 -k MAC 
- -t 2.606004500 -s 1 -d -1 -p ACK -e 38 -c 2 -a 0 -i 0 -k MAC
h -t 2.606004500 -s 1 -d -1 -p ACK -e 38 -c 2 -a 0 -i 0 -k MAC
r -t 2.606019500 -s 1 -d 1 -p cbr -e 532 -c 2 -a 0 -i 16 -k AGT
r -t 2.606309667 -s 0 -d -1 -p ACK -e 38 -c 2 -a 0 -i 0 -k MAC
+ -t 2.700000000 -s 0 -d -1 -p cbr -e 512 -c 2 -a 0 -i 17 -k AGT 
- -t 2.700000000 -s 0 -d -1 -p cbr -e 512 -c 2 -a 0 -i 17 -k AGT
h -t 2.700000000 -s 0 -d -1 -p cbr -e 512 -c 2 -a 0 -i 17 -k AGT
+ -t 2.700000000 -s 0 -d 1 -p cbr -e 532 -c 2 -a 0 -i 17 -k RTR 
- -t 2.700000000 -s 0 -d 1 -p cbr -e 532 -c 2 -a 0 -i 17 -k RTR
h -t 2.700000000 -s 0 -d 1 -p cbr -e 532 -c 2 -a 0 -i 17 -k RTR
+ -t 2.700275000 -s 0 -d -1 -p RTS -e 44 -c 2 -a 0 -i 0 -k MAC 
- -t 2.700275000 -s 0 -d -1 -p RTS -e 44 -c 2 -a 0 -i 0 -k MAC
h -t 2.700275000 -s 0 -d -1 -p RTS -e 44 -c 2 -a 0 -i 0 -k MAC
r -t 2.700628167 -s 1 -d -1 -p RTS -e 44 -c 2 -a 0 -i 0 -k MAC
+ -t 2.700638167 -s 1 -d -1 -p CTS -e 38 -c 2 -a 0 -i 0 -k MAC 
- -t 2.700638167 -s 1 -d -1 -p CTS -e 38 -c 2 -a 0 -i 0 -k MAC
h -t 2.700638167 -s 1 -d -1 -p CTS -e 38 -c 2 -a 0 -i 0 -k MAC
r -t 2.700943333 -s 0 -d -1 -p CTS -e 38 -c 2 -a 0 -i 0 -k MAC
+ -t 2.700953333 -s 0 -d 1 -p cbr -e 590 -c 2 -a 0 -i 17 -k MAC 
- -t 2.700953333 -s 0 -d 1 -p cbr -e 590 -c 2 -a 0 -i 17 -k MAC
h -t 2.700953333 -s 0 -d 1 -p cbr -e 590 -c 2 -a 0 -i 17 -k MAC
r -t 2.705674500 -s 1 -d 1 -p cbr -e 532 -c 2 -a 0 -i 17 -k MAC
+ -t 2.705684500 -s 1 -d -1 -p ACK -e 38 -c 2 -a 0 -i 0 -k MAC 
- -t 2.705684500 -s 1 -d -1 -p ACK -e 38 -c 2 -a 0 -i 0 -k MAC
h -t 2.705684500 -s 1 -d -1 -p ACK -e 38 -c 2 -a 0 -i 0 -k MAC
r -t 2.705699500 -s 1 -d 1 -p cbr -e 532 -c 2 -a 0 -i 17 -k AGT
r -t 2.705989667 -s 0 -d -1 -p ACK -e 38 -c 2 -a 0 -i 0 -k MAC
+ -t 2.800000000 -s 0 -d -1 -p cbr -e 512 -c 2 -a 0 -i 18 -k AGT 
- -t 2.800000000 -s 0 -d -1 -p cbr -e 512 -c 2 -a 0 -i 18 -k AGT
h -t 2.800000000 -s 0 -d -1 -p cbr -e 512 -c 2 -a 0 -i 18 -k AGT
+ -t 2.800000000 -s 0 -d 1 -p cbr -e 532 -c 2 -a 0 -i 18 -k RTR 
- -t 2.800000000 -s 0 -d 1 -p cbr -e 532 -c 2 -a 0 -i 18 -k RTR
h -t 2.800000000 -s 0 -d 1 -p cbr -e 532 -c 2 -a 0 -i 18 -k RTR